DF-ISE text

Info {
  version   = 1.0
  type      = xyplot
  datasets  = [
    "time"
    "Top OuterVoltage" "Top InnerVoltage" "Top QuasiFermiPotential" "Top DisplacementCurrent" "Top eCurrent"
    "Top hCurrent" "Top TotalCurrent" "Top Charge" "Bottom OuterVoltage" "Bottom InnerVoltage"
    "Bottom QuasiFermiPotential" "Bottom DisplacementCurrent" "Bottom eCurrent" "Bottom hCurrent" "Bottom TotalCurrent"
    "Bottom Charge" ]
  functions = [
    Time
    OuterVoltage InnerVoltage QuasiFermiPotential DisplacementCurrent eCurrent
    hCurrent TotalCurrent Charge OuterVoltage InnerVoltage
    QuasiFermiPotential DisplacementCurrent eCurrent hCurrent TotalCurrent
    Charge ]
}

Data {
      0.00000000000000E+00
      0.00000000000000E+00   0.00000000000000E+00   0.00000000000000E+00   0.00000000000000E+00  -7.66914710499595E-26
      1.57834765379684E-11   1.57834765379683E-11  -1.42054795608355E-13   0.00000000000000E+00   0.00000000000000E+00
      0.00000000000000E+00   0.00000000000000E+00  -2.69557246709565E-27  -2.24680426302577E-15  -2.24680426302847E-15
      5.16319095256065E-15
      0.00000000000000E+00
      0.00000000000000E+00   0.00000000000000E+00   0.00000000000000E+00   0.00000000000000E+00   1.75112192230741E-25
     -1.37619728191374E-13  -1.37619728191199E-13  -1.42054795608356E-13   0.00000000000000E+00   0.00000000000000E+00
      0.00000000000000E+00   0.00000000000000E+00   8.13609843331791E-28   1.11210210833910E-17   1.11210210842046E-17
      5.16319095256062E-15
      2.50000000000000E-03
      1.25000000000000E-02   1.25000000000000E-02   0.00000000000000E+00   0.00000000000000E+00   6.59120626947998E-15
     -9.78993197265472E-11  -9.78927285202778E-11  -1.42054795603846E-13   0.00000000000000E+00   0.00000000000000E+00
      0.00000000000000E+00   0.00000000000000E+00  -6.59120609390231E-15   9.95033805244785E-17  -6.49170271337783E-15
      5.14249578127551E-15
      6.66666666666667E-03
      3.33333333333333E-02   3.33333333333333E-02   0.00000000000000E+00   0.00000000000000E+00   2.39329138948739E-14
      3.01257116438828E-14   5.40586255387567E-14  -1.42054795593794E-13   0.00000000000000E+00   0.00000000000000E+00
      0.00000000000000E+00   0.00000000000000E+00  -2.39329138857898E-14  -1.85967569029966E-16  -2.41188814548198E-14
      5.10793965881753E-15
      1.43055555555556E-02
      7.15277777777778E-02   7.15277777777778E-02   0.00000000000000E+00   0.00000000000000E+00   1.03389004335608E-13
      6.53864877725184E-14   1.68775492108126E-13  -1.42054795556558E-13   0.00000000000000E+00   0.00000000000000E+00
      0.00000000000000E+00   0.00000000000000E+00  -1.03389004335653E-13  -1.18330083936429E-16  -1.03507334419590E-13
      5.04436545323122E-15
      2.70370370370370E-02
      1.35185185185185E-01   1.35185185185185E-01   0.00000000000000E+00   0.00000000000000E+00   8.51583905054634E-13
     -6.70981759341027E-14   7.84485729120531E-13  -1.42054795250742E-13   0.00000000000000E+00   0.00000000000000E+00
      0.00000000000000E+00   0.00000000000000E+00  -8.51583905053509E-13  -1.36992495014227E-15  -8.52953830003652E-13
      4.93769848674996E-15
      4.82561728395062E-02
      2.41280864197531E-01   2.41280864197531E-01   0.00000000000000E+00   0.00000000000000E+00   3.07598050898717E-11
      7.59989543743409E-14   3.08358040442460E-11  -1.42054783424392E-13   0.00000000000000E+00   0.00000000000000E+00
      0.00000000000000E+00   0.00000000000000E+00  -3.07598050897216E-11  -8.34556265119113E-14  -3.08432607162336E-11
      4.75749122338370E-15
      8.36213991769547E-02
      4.18106995884774E-01   4.18106995884774E-01   0.00000000000000E+00   0.00000000000000E+00   1.90424984207617E-08
      7.72895672481753E-11   1.91197879880099E-08  -1.42051312938324E-13   0.00000000000000E+00   0.00000000000000E+00
      0.00000000000000E+00   0.00000000000000E+00  -1.90424984213614E-08  -7.72225612551387E-11  -1.91197209826165E-08
      4.44813024967950E-15
      1.07198216735254E-01
      5.35991083676269E-01   5.35991083676269E-01   0.00000000000000E+00   0.00000000000000E+00   1.34391004220801E-06
      6.53818456742242E-09   1.35044822677543E-06  -1.42018543913346E-13   0.00000000000000E+00   0.00000000000000E+00
      0.00000000000000E+00   0.00000000000000E+00  -1.34391004220813E-06  -6.53831558516802E-09  -1.35044835779330E-06
      4.23338027168865E-15
      1.38633973479653E-01
      6.93169867398263E-01   6.93169867398263E-01   0.00000000000000E+00   0.00000000000000E+00   1.93689598395778E-05
      1.14478521406683E-07   1.94834383609845E-05  -1.41915001890575E-13   0.00000000000000E+00   0.00000000000000E+00
      0.00000000000000E+00   0.00000000000000E+00  -1.93689598395793E-05  -1.14478512492761E-07  -1.94834383520720E-05
      3.79411278291926E-15
      1.75309023014784E-01
      8.76545115073922E-01   8.76545115073922E-01   0.00000000000000E+00   0.00000000000000E+00   4.65803221605024E-05
      2.29327449050494E-07   4.68096496095529E-05  -1.41838051709230E-13   0.00000000000000E+00   0.00000000000000E+00
      0.00000000000000E+00   0.00000000000000E+00  -4.65803221604900E-05  -2.29327231130120E-07  -4.68096493916201E-05
      2.73522510162719E-15
      2.24209089061627E-01
      1.12104544530813E+00   1.12104544530813E+00   0.00000000000000E+00   0.00000000000000E+00   1.17675494578839E-04
      4.07223080550450E-07   1.18082717659389E-04  -1.41711347704604E-13   0.00000000000000E+00   0.00000000000000E+00
      0.00000000000000E+00   0.00000000000000E+00  -1.17675494578858E-04  -4.07223476702301E-07  -1.18082718055560E-04
      4.23341777503823E-16
      2.89409177124084E-01
      1.44704588562042E+00   1.44704588562042E+00   0.00000000000000E+00   0.00000000000000E+00   2.81596253821269E-04
      5.36739797145393E-07   2.82132993618415E-04  -1.41526595280525E-13   0.00000000000000E+00   0.00000000000000E+00
      0.00000000000000E+00   0.00000000000000E+00  -2.81596253821286E-04  -5.36739964105063E-07  -2.82132993785391E-04
     -9.85668907433628E-16
      3.76342627874026E-01
      1.88171313937013E+00   1.88171313937013E+00   0.00000000000000E+00   0.00000000000000E+00   5.47654700831035E-04
      6.87499169763205E-07   5.48342200000798E-04  -1.41323321934941E-13   0.00000000000000E+00   0.00000000000000E+00
      0.00000000000000E+00   0.00000000000000E+00  -5.47654700831357E-04  -6.87500881060537E-07  -5.48342201712417E-04
     -2.14804383472479E-15
      4.76342627874026E-01
      2.38171313937013E+00   2.38171313937013E+00   0.00000000000000E+00   0.00000000000000E+00   9.15065198063906E-04
      8.89424037001146E-07   9.15954622100907E-04  -1.41115663332383E-13   0.00000000000000E+00   0.00000000000000E+00
      0.00000000000000E+00   0.00000000000000E+00  -9.15065198064243E-04  -8.89424623347238E-07  -9.15954622687590E-04
     -3.45503981037444E-15
      5.76342627874026E-01
      2.88171313937013E+00   2.88171313937013E+00   0.00000000000000E+00   0.00000000000000E+00   1.35241207999175E-03
      1.13301234955638E-06   1.35354509234131E-03  -1.40919815336401E-13   0.00000000000000E+00   0.00000000000000E+00
      0.00000000000000E+00   0.00000000000000E+00  -1.35241207999153E-03  -1.13301172275357E-06  -1.35354509171428E-03
     -4.77183467600750E-15
      6.76342627874026E-01
      3.38171313937013E+00   3.38171313937013E+00   0.00000000000000E+00   0.00000000000000E+00   1.86196582467312E-03
      1.42787280380498E-06   1.86339369747693E-03  -1.40730166279598E-13   0.00000000000000E+00   0.00000000000000E+00
      0.00000000000000E+00   0.00000000000000E+00  -1.86196582467351E-03  -1.42787317393054E-06  -1.86339369784744E-03
     -6.09969802515719E-15
      7.76342627874026E-01
      3.88171313937013E+00   3.88171313937013E+00   0.00000000000000E+00   0.00000000000000E+00   2.44489302614177E-03
      1.78525239907808E-06   2.44667827854085E-03  -1.40544496062980E-13   0.00000000000000E+00   0.00000000000000E+00
      0.00000000000000E+00   0.00000000000000E+00  -2.44489302614417E-03  -1.78525506706415E-06  -2.44667828121123E-03
     -7.43620635594771E-15
      8.76342627874026E-01
      4.38171313937013E+00   4.38171313937013E+00   0.00000000000000E+00   0.00000000000000E+00   3.10178604235235E-03
      2.21957690907996E-06   3.10400561926143E-03  -1.40361811702711E-13   0.00000000000000E+00   0.00000000000000E+00
      0.00000000000000E+00   0.00000000000000E+00  -3.10178604235501E-03  -2.21957926247473E-06  -3.10400562161749E-03
     -8.77917454134178E-15
      9.76342627874026E-01
      4.88171313937013E+00   4.88171313937013E+00   0.00000000000000E+00   0.00000000000000E+00   3.83347449312945E-03
      2.75041176548603E-06   3.83622490489493E-03  -1.40181497610674E-13   0.00000000000000E+00   0.00000000000000E+00
      0.00000000000000E+00   0.00000000000000E+00  -3.83347449312464E-03  -2.75040879505798E-06  -3.83622490191970E-03
     -1.01275723710599E-14
      1.00000000000000E+00
      5.00000000000000E+00   5.00000000000000E+00   0.00000000000000E+00   0.00000000000000E+00   4.01764600998339E-03
      2.89287398204340E-06   4.02053888396544E-03  -1.40139132849349E-13   0.00000000000000E+00   0.00000000000000E+00
      0.00000000000000E+00   0.00000000000000E+00  -4.01764600998310E-03  -2.89287352965914E-06  -4.02053888351276E-03
     -1.04473234653046E-14
}
